<configuration xmlns:xsi="http://www.w3.org/2001/XMLSchema-instance" xsi:noNamespaceSchemaLocation="http://sumo.dlr.de/xsd/sumoConfiguration.xsd">

    <input>
        <net-file value="new.net.xml" />
        <route-files value="new_val" />

    </input>

    <routing>
        <routing-algorithm value="test" />
    </routing>


   <output>
        <vehroute-output value="new_output" />
    </output>

</configuration>