<configuration xmlns:xsi="http://www.w3.org/2001/XMLSchema-instance" xsi:noNamespaceSchemaLocation="http://sumo.dlr.de/xsd/sumoConfiguration.xsd">

    <input>
        <net-file value="grid_10.net.xml" />
        <route-files value="../trip_files_grid_10/500tr_grid_10.trips.xml" />

    </input>

    <routing>
        <routing-algorithm value="astar" />
    </routing>


   <output>
        <vehroute-output value="../grid_10_output_files/astar_500tr.out.xml" />
    </output>

</configuration>