<configuration xmlns:xsi="http://www.w3.org/2001/XMLSchema-instance" xsi:noNamespaceSchemaLocation="http://sumo.dlr.de/xsd/sumoConfiguration.xsd">

    <input>
        <net-file value="net_001.net.xml" />
        <route-files value="../trip_files_net_001/4000tr_net_001.trips.xml" />

    </input>

    <routing>
        <routing-algorithm value="astar" />
    </routing>


   <output>
        <vehroute-output value="../net_001_output_files/astar_4000tr.out.xml" />
    </output>

</configuration>